----- GAMESS execution script 'rungms' -----
This job is running on host bell-a370.rcac.purdue.edu
under operating system Linux at Wed Feb 24 12:55:53 EST 2021
Available scratch disk space (Kbyte units) at beginning of the job is
Filesystem                                                                           1K-blocks          Used     Available Use% Mounted on
172.18.44.27@o2ib:172.18.44.28@o2ib:172.18.44.31@o2ib:172.18.44.32@o2ib:/scratch 3836965864320 1144911499720 2500913684300  32% /scratch/bell
GAMESS temporary binary files will be written to /scratch/bell/rong10
GAMESS supplementary output files will be written to /scratch/bell/rong10
Copying input file water_631g_mp2.0.inp to your run's scratch directory...

 Distributed Data Interface kickoff program.
 Initiating 1 compute processes on 1 nodes to run the following command:
 /apps/cent7/gamess/18.Aug.2016/gamess.02.x water_631g_mp2.0 

          ******************************************************
          *         GAMESS VERSION = 18 AUG 2016 (R1)          *
          *             FROM IOWA STATE UNIVERSITY             *
          * M.W.SCHMIDT, K.K.BALDRIDGE, J.A.BOATZ, S.T.ELBERT, *
          *   M.S.GORDON, J.H.JENSEN, S.KOSEKI, N.MATSUNAGA,   *
          *          K.A.NGUYEN, S.J.SU, T.L.WINDUS,           *
          *       TOGETHER WITH M.DUPUIS, J.A.MONTGOMERY       *
          *         J.COMPUT.CHEM.  14, 1347-1363(1993)        *
          **************** 64 BIT INTEL VERSION ****************

  SINCE 1993, STUDENTS AND POSTDOCS WORKING AT IOWA STATE UNIVERSITY
  AND ALSO IN THEIR VARIOUS JOBS AFTER LEAVING ISU HAVE MADE IMPORTANT
  CONTRIBUTIONS TO THE CODE:
     IVANA ADAMOVIC, CHRISTINE AIKENS, YURI ALEXEEV, POOJA ARORA,
     ANDREY ASADCHEV, ROB BELL, PRADIPTA BANDYOPADHYAY, JONATHAN BENTZ,
     BRETT BODE, KURT BRORSEN, CALEB CARLIN, GALINA CHABAN, WEI CHEN,
     CHEOL HO CHOI, PAUL DAY, ALBERT DEFUSCO, NUWAN DESILVA, TIM DUDLEY,
     DMITRI FEDOROV, GRAHAM FLETCHER, MARK FREITAG, KURT GLAESEMANN,
     DAN KEMP, GRANT MERRILL, NORIYUKI MINEZAWA, JONATHAN MULLIN,
     TAKESHI NAGATA, SEAN NEDD, HEATHER NETZLOFF, BOSILJKA NJEGIC, RYAN OLSON,
     MIKE PAK, SPENCER PRUITT, LUKE ROSKOP, JIM SHOEMAKER, LYUDMILA SLIPCHENKO,
     TONY SMITH, SAROM SOK LEANG, JIE SONG, TETSUYA TAKETSUGU, SIMON WEBB,
     PENG XU, SOOHAENG YOO, FEDERICO ZAHARIEV

  ADDITIONAL CODE HAS BEEN PROVIDED BY COLLABORATORS IN OTHER GROUPS:
     IOWA STATE UNIVERSITY:
          JOE IVANIC, AARON WEST, LAIMUTIS BYTAUTAS, KLAUS RUEDENBERG
     UNIVERSITY OF TOKYO: KIMIHIKO HIRAO, TAKAHITO NAKAJIMA,
          TAKAO TSUNEDA, MUNEAKI KAMIYA, SUSUMU YANAGISAWA,
          KIYOSHI YAGI, MAHITO CHIBA, SEIKEN TOKURA, NAOAKI KAWAKAMI
     UNIVERSITY OF AARHUS: FRANK JENSEN
     UNIVERSITY OF IOWA: VISVALDAS KAIRYS, HUI LI
     NATIONAL INST. OF STANDARDS AND TECHNOLOGY: WALT STEVENS, DAVID GARMER
     UNIVERSITY OF PISA: BENEDETTA MENNUCCI, JACOPO TOMASI
     UNIVERSITY OF MEMPHIS: HENRY KURTZ, PRAKASHAN KORAMBATH
     UNIVERSITY OF ALBERTA: TOBY ZENG, MARIUSZ KLOBUKOWSKI
     UNIVERSITY OF NEW ENGLAND: MARK SPACKMAN
     MIE UNIVERSITY: HIROAKI UMEDA
     NAT. INST. OF ADVANCED INDUSTRIAL SCIENCE AND TECHNOLOGY: KAZUO KITAURA
     MICHIGAN STATE UNIVERSITY:
          KAROL KOWALSKI, MARTA WLOCH, JEFFREY GOUR, JESSE LUTZ,
          WEI LI, PIOTR PIECUCH
     UNIVERSITY OF SILESIA: MONIKA MUSIAL, STANISLAW KUCHARSKI
     FACULTES UNIVERSITAIRES NOTRE-DAME DE LA PAIX:
          OLIVIER QUINET, BENOIT CHAMPAGNE
     UNIVERSITY OF CALIFORNIA - SANTA BARBARA: BERNARD KIRTMAN
     INSTITUTE FOR MOLECULAR SCIENCE:
          KAZUYA ISHIMURA, MICHIO KATOUDA, AND SHIGERU NAGASE
     UNIVERSITY OF NOTRE DAME: ANNA POMOGAEVA, DAN CHIPMAN
     KYUSHU UNIVERSITY:
          HARUYUKI NAKANO,
          FENG LONG GU, JACEK KORCHOWIEC, MARCIN MAKOWSKI, AND YURIKO AOKI,
          HIROTOSHI MORI AND EISAKU MIYOSHI
     PENNSYLVANIA STATE UNIVERSITY:
          TZVETELIN IORDANOV, CHET SWALINA, JONATHAN SKONE,
          SHARON HAMMES-SCHIFFER
     WASEDA UNIVERSITY:
          MASATO KOBAYASHI, TOMOKO AKAMA, TSUGUKI TOUMA,
          TAKESHI YOSHIKAWA, YASUHIRO IKABATA, JUNJI SEINO,
          YUYA NAKAJIMA, HIROMI NAKAI
     NANJING UNIVERSITY: SHUHUA LI
     UNIVERSITY OF NEBRASKA:
          PEIFENG SU, DEJUN SI, NANDUN THELLAMUREGE, YALI WANG, HUI LI
     UNIVERSITY OF ZURICH: ROBERTO PEVERATI, KIM BALDRIDGE
     N. COPERNICUS UNIVERSITY AND JACKSON STATE UNIVERSITY:
          MARIA BARYSZ
     UNIVERSITY OF COPENHAGEN: Jimmy Kromann, CASPER STEINMANN
     TOKYO INSTITUTE OF TECHNOLOGY: HIROYA NAKATA
     NAGOYA UNIVERSITY: YOSHIO NISHIMOTO, STEPHAN IRLE
     MOSCOW STATE UNIVERSITY: VLADIMIR MIRONOV

 EXECUTION OF GAMESS BEGUN Wed Feb 24 12:55:53 2021

            ECHO OF THE FIRST FEW INPUT CARDS -
 INPUT CARD> $contrl MPLEVL=2 units=angs runtyp=energy coord=unique maxit=1 $end            
 INPUT CARD> $guess guess=moread $end                                                       
 INPUT CARD> $system timlim=99999   mwords=500 $end                                         
 INPUT CARD> $scf soscf=.f. diis=.t. CONV=1.0d-06  $end                                     
 INPUT CARD> $basis gbasis=n31 ngauss=6 ndfunc=1 $end                                       
 INPUT CARD> $data                                                                          
 INPUT CARD> Water H2O (GEOMETRY: MP2/cc-pVTZ)                                              
 INPUT CARD> C1                                                                             
 INPUT CARD>O1 8.0  0.0000  0.0000  0.1187                                                  
 INPUT CARD>H2 1.0  0.0000  0.7532 -0.4749                                                  
 INPUT CARD>H3 1.0  0.0000     -0.7532 -0.4749                                              
 INPUT CARD> $end                                                                           
 INPUT CARD>                                                                                
 INPUT CARD>--- CLOSED SHELL ORBITALS --- GENERATED AT Thu Aug 20 14:04:18 2020             
 INPUT CARD> Water H2O (GEOMETRY: MP2/cc-pVTZ)                                              
 INPUT CARD>E(RHF)=        0.0000000000, E(NUC)=    9.1801505578,    1 ITERS                
 INPUT CARD> $VEC                                                                           
 INPUT CARD> 1  1 9.94903997E-01 2.02295351E-02 0.00000000E+00 0.00000000E+00-2.47322191E-03
 INPUT CARD> 1  2 3.17441794E-03 0.00000000E+00 0.00000000E+00 1.27512865E-03-3.30292260E-03
 INPUT CARD> 1  3-3.69957125E-03-3.44325365E-03 0.00000000E+00 0.00000000E+00 0.00000000E+00
 INPUT CARD> 1  4 3.67830090E-04 1.30184706E-04 3.67830090E-04 1.30184706E-04               
 INPUT CARD> 2  1-1.99079825E-01 4.31175253E-01 0.00000000E+00 0.00000000E+00-1.02164266E-01
 INPUT CARD> 2  2 4.08546656E-01 0.00000000E+00 0.00000000E+00-6.48345850E-02-1.11817249E-03
 INPUT CARD> 2  3 2.46341834E-02 2.58953699E-02 0.00000000E+00 0.00000000E+00 0.00000000E+00
 INPUT CARD> 2  4 1.52759500E-01 3.08824817E-02 1.52759500E-01 3.08824817E-02               
 INPUT CARD> 3  1 0.00000000E+00 0.00000000E+00 0.00000000E+00 4.91381161E-01 0.00000000E+00
 INPUT CARD> 3  2 0.00000000E+00 0.00000000E+00 3.12306276E-01 0.00000000E+00 0.00000000E+00
 INPUT CARD> 3  3 0.00000000E+00 0.00000000E+00 0.00000000E+00 0.00000000E+00-5.31096317E-02
 INPUT CARD> 3  4 2.35606642E-01 1.16584049E-01-2.35606642E-01-1.16584049E-01               
 INPUT CARD> 4  1-7.89355476E-02 1.91208083E-01-0.00000000E+00-0.00000000E+00 5.79242522E-01
 INPUT CARD> 4  2 2.79507990E-01-0.00000000E+00-0.00000000E+00 4.03787829E-01 1.92808667E-02
 INPUT CARD> 4  3 1.59883410E-02-4.85002819E-02-0.00000000E+00-0.00000000E+00-0.00000000E+00
 INPUT CARD> 4  4-1.16688939E-01-5.29670201E-02-1.16688939E-01-5.29670201E-02               
 INPUT CARD> 5  1 0.00000000E+00 0.00000000E+00 6.63697829E-01 0.00000000E+00 0.00000000E+00
 INPUT CARD> 5  2 0.00000000E+00 4.84759929E-01 0.00000000E+00 0.00000000E+00 0.00000000E+00
 INPUT CARD> 5  3 0.00000000E+00 0.00000000E+00 0.00000000E+00-4.24308694E-02 0.00000000E+00
 INPUT CARD> 5  4 0.00000000E+00 0.00000000E+00 0.00000000E+00 0.00000000E+00               
 INPUT CARD> 6  1-1.12003197E-01 8.30849548E-02 0.00000000E+00 0.00000000E+00-2.24493192E-01
 INPUT CARD> 6  2 1.43246405E+00 0.00000000E+00 0.00000000E+00-4.76360504E-01-6.95722612E-02
 INPUT CARD> 6  3-5.98474788E-02-3.61402059E-02 0.00000000E+00 0.00000000E+00 0.00000000E+00
 INPUT CARD> 6  4-6.29503415E-02-1.02932772E+00-6.29503415E-02-1.02932772E+00               
 INPUT CARD> 7  1 0.00000000E+00 0.00000000E+00 0.00000000E+00 3.37123261E-01 0.00000000E+00
 INPUT CARD> 7  2 0.00000000E+00 0.00000000E+00 8.35839794E-01 0.00000000E+00 0.00000000E+00
 INPUT CARD> 7  3 0.00000000E+00 0.00000000E+00 0.00000000E+00 0.00000000E+00-2.92950967E-02
 INPUT CARD> 7  4-5.21525424E-02-1.39127852E+00 5.21525424E-02 1.39127852E+00               
 INPUT CARD> 8  1 0.00000000E+00 0.00000000E+00 0.00000000E+00 1.17200894E-01 0.00000000E+00
 INPUT CARD> 8  2 0.00000000E+00 0.00000000E+00 6.24747315E-01 0.00000000E+00 0.00000000E+00
 INPUT CARD> 8  3 0.00000000E+00 0.00000000E+00 0.00000000E+00 0.00000000E+00 1.92658804E-01
 INPUT CARD> 8  4-8.41253112E-01 4.88724000E-01 8.41253112E-01-4.88724000E-01               
 INPUT CARD> 9  1 4.19227039E-02-5.76367132E-01 0.00000000E+00 0.00000000E+00 2.70816946E-01
  500000000 WORDS OF MEMORY AVAILABLE

     BASIS OPTIONS
     -------------
     GBASIS=N31          IGAUSS=       6      POLAR=POPN31  
     NDFUNC=       1     NFFUNC=       0     DIFFSP=       F
     NPFUNC=       0      DIFFS=       F     BASNAM=        


     RUN TITLE
     ---------
  Water H2O (GEOMETRY: MP2/cc-pVTZ)                                              

 THE POINT GROUP OF THE MOLECULE IS C1      
 THE ORDER OF THE PRINCIPAL AXIS IS     0

 ATOM      ATOMIC                      COORDINATES (BOHR)
           CHARGE         X                   Y                   Z
 O1          8.0     0.0000000000        0.0000000000        0.2243104747
 H2          1.0     0.0000000000        1.4233416140       -0.8974308716
 H3          1.0     0.0000000000       -1.4233416140       -0.8974308716

          INTERNUCLEAR DISTANCES (ANGS.)
          ------------------------------

                1 O1         2 H2         3 H3    

   1 O1      0.0000000    0.9589949 *  0.9589949 *
   2 H2      0.9589949 *  0.0000000    1.5064000 *
   3 H3      0.9589949 *  1.5064000 *  0.0000000  

  * ... LESS THAN  3.000


     ATOMIC BASIS SET
     ----------------
 THE CONTRACTED PRIMITIVE FUNCTIONS HAVE BEEN UNNORMALIZED
 THE CONTRACTED BASIS FUNCTIONS ARE NOW NORMALIZED TO UNITY

  SHELL TYPE  PRIMITIVE        EXPONENT          CONTRACTION COEFFICIENT(S)

 O1        

      1   S       1          5484.6716600    0.001831074430
      1   S       2           825.2349460    0.013950172200
      1   S       3           188.0469580    0.068445078098
      1   S       4            52.9645000    0.232714335992
      1   S       5            16.8975704    0.470192897984
      1   S       6             5.7996353    0.358520852987

      2   L       7            15.5396162   -0.110777549525    0.070874268231
      2   L       8             3.5999336   -0.148026262701    0.339752839147
      2   L       9             1.0137618    1.130767015354    0.727158577316

      3   L      10             0.2700058    1.000000000000    1.000000000000

      4   D      11             0.8000000    1.000000000000

 H2        

      5   S      12            18.7311370    0.033494604338
      5   S      13             2.8253944    0.234726953484
      5   S      14             0.6401217    0.813757326146

      6   S      15             0.1612778    1.000000000000

 H3        

      7   S      16            18.7311370    0.033494604338
      7   S      17             2.8253944    0.234726953484
      7   S      18             0.6401217    0.813757326146

      8   S      19             0.1612778    1.000000000000

 TOTAL NUMBER OF BASIS SET SHELLS             =    8
 NUMBER OF CARTESIAN GAUSSIAN BASIS FUNCTIONS =   19
 NUMBER OF ELECTRONS                          =   10
 CHARGE OF MOLECULE                           =    0
 SPIN MULTIPLICITY                            =    1
 NUMBER OF OCCUPIED ORBITALS (ALPHA)          =    5
 NUMBER OF OCCUPIED ORBITALS (BETA )          =    5
 TOTAL NUMBER OF ATOMS                        =    3
 THE NUCLEAR REPULSION ENERGY IS        9.1801505578

     $CONTRL OPTIONS
     ---------------
 SCFTYP=RHF          RUNTYP=ENERGY       EXETYP=RUN     
 MPLEVL=       2     CITYP =NONE         CCTYP =NONE         VBTYP =NONE    
 DFTTYP=NONE         TDDFT =NONE    
 MULT  =       1     ICHARG=       0     NZVAR =       0     COORD =UNIQUE  
 PP    =NONE         RELWFN=NONE         LOCAL =NONE         NUMGRD=       F
 ISPHER=      -1     NOSYM =       0     MAXIT =       1     UNITS =ANGS    
 PLTORB=       F     MOLPLT=       F     AIMPAC=       F     FRIEND=        
 NPRINT=       7     IREST =       0     GEOM  =INPUT   
 NORMF =       0     NORMP =       0     ITOL  =      20     ICUT  =       9
 INTTYP=BEST         GRDTYP=BEST         QMTTOL= 1.0E-06

     $SYSTEM OPTIONS
     ---------------
  REPLICATED MEMORY=   500000000 WORDS (ON EVERY NODE).
 DISTRIBUTED MEMDDI=           0 MILLION WORDS IN AGGREGATE,
 MEMDDI DISTRIBUTED OVER   1 PROCESSORS IS           0 WORDS/PROCESSOR.
 TOTAL MEMORY REQUESTED ON EACH PROCESSOR=   500000000 WORDS.
 TIMLIM=       99999.00 MINUTES, OR      69.4 DAYS.
 PARALL= F  BALTYP=  DLB     KDIAG=    0  COREFL= F
 MXSEQ2=     300 MXSEQ3=     150  mem10=         0

          ----------------
          PROPERTIES INPUT
          ----------------

     MOMENTS            FIELD           POTENTIAL          DENSITY
 IEMOM =       1   IEFLD =       0   IEPOT =       0   IEDEN =       0
 WHERE =COMASS     WHERE =NUCLEI     WHERE =NUCLEI     WHERE =NUCLEI  
 OUTPUT=BOTH       OUTPUT=BOTH       OUTPUT=BOTH       OUTPUT=BOTH    
 IEMINT=       0   IEFINT=       0                     IEDINT=       0
                                                       MORB  =       0
          EXTRAPOLATION IN EFFECT
          DIIS IN EFFECT
 ORBITAL PRINTING OPTION: NPREO=     1    19     2     1

     -------------------------------
     INTEGRAL TRANSFORMATION OPTIONS
     -------------------------------
     NWORD  =            0
     CUTOFF = 1.0E-09     MPTRAN =       0
     DIRTRF =       F     AOINTS =DUP     

          ----------------------
          INTEGRAL INPUT OPTIONS
          ----------------------
 NOPK  =       1 NORDER=       0 SCHWRZ=       F

          -----------------------
          MP2 CONTROL INFORMATION
          -----------------------
          NACORE =        1  NBCORE =        1
          LMOMP2 =        F  AOINTS = DUP     
          METHOD =        2  NWORD  =               0
          MP2PRP =        F  OSPT   = NONE    
          CUTOFF = 1.00E-09  CPHFBS = BASISAO 
          CODE   = IMS     

          NUMBER OF CORE -A-  ORBITALS =     1
          NUMBER OF CORE -B-  ORBITALS =     1
          NUMBER OF OCC. -A-  ORBITALS =     5
          NUMBER OF OCC. -B-  ORBITALS =     5
          NUMBER OF MOLECULAR ORBITALS =    19
          NUMBER OF   BASIS  FUNCTIONS =    19


     ------------------------------------------
     THE POINT GROUP IS C1 , NAXIS= 0, ORDER= 1
     ------------------------------------------

     DIMENSIONS OF THE SYMMETRY SUBSPACES ARE
 A   =   19

 ..... DONE SETTING UP THE RUN .....
 STEP CPU TIME =     0.01 TOTAL CPU TIME =        0.0 (    0.0 MIN)
 TOTAL WALL CLOCK TIME=        0.0 SECONDS, CPU UTILIZATION IS  25.00%

          ********************
          1 ELECTRON INTEGRALS
          ********************
 ...... END OF ONE-ELECTRON INTEGRALS ......
 STEP CPU TIME =     0.00 TOTAL CPU TIME =        0.0 (    0.0 MIN)
 TOTAL WALL CLOCK TIME=        0.0 SECONDS, CPU UTILIZATION IS  25.00%

          -------------
          GUESS OPTIONS
          -------------
          GUESS =MOREAD            NORB  =       0          NORDER=       0
          MIX   =       F          PRTMO =       F          PUNMO =       F
          TOLZ  = 1.0E-08          TOLE  = 1.0E-05
          SYMDEN=       F          PURIFY=       F

 INITIAL GUESS ORBITALS GENERATED BY MOREAD   ROUTINE.

 SYMMETRIES FOR INITIAL GUESS ORBITALS FOLLOW.   BOTH SET(S).
     5 ORBITALS ARE OCCUPIED (    1 CORE ORBITALS).
     1=A        2=A        3=A        4=A        5=A        6=A        7=A   
     8=A        9=A       10=A       11=A       12=A       13=A       14=A   
    15=A       16=A       17=A       18=A       19=A   
 ...... END OF INITIAL ORBITAL SELECTION ......
 STEP CPU TIME =     0.00 TOTAL CPU TIME =        0.0 (    0.0 MIN)
 TOTAL WALL CLOCK TIME=        0.1 SECONDS, CPU UTILIZATION IS  20.00%

                    ----------------------
                    AO INTEGRAL TECHNOLOGY
                    ----------------------
     S,P,L SHELL ROTATED AXIS INTEGRALS, REPROGRAMMED BY
        KAZUYA ISHIMURA (IMS) AND JOSE SIERRA (SYNSTAR).
     S,P,D,L SHELL ROTATED AXIS INTEGRALS PROGRAMMED BY
        KAZUYA ISHIMURA (INSTITUTE FOR MOLECULAR SCIENCE).
     S,P,D,F,G SHELL TO TOTAL QUARTET ANGULAR MOMENTUM SUM 5,
        ERIC PROGRAM BY GRAHAM FLETCHER (ELORET AND NASA ADVANCED
        SUPERCOMPUTING DIVISION, AMES RESEARCH CENTER).
     S,P,D,F,G,L SHELL GENERAL RYS QUADRATURE PROGRAMMED BY
        MICHEL DUPUIS (PACIFIC NORTHWEST NATIONAL LABORATORY).

          --------------------
          2 ELECTRON INTEGRALS
          --------------------

 THE -PK- OPTION IS OFF, THE INTEGRALS ARE NOT IN SUPERMATRIX FORM.
 STORING   15000 INTEGRALS/RECORD ON DISK, USING 12 BYTES/INTEGRAL.
 TWO ELECTRON INTEGRAL EVALUATION REQUIRES   90432 WORDS OF MEMORY.
 II,JST,KST,LST =  1  1  1  1 NREC =         1 INTLOC =    1
 II,JST,KST,LST =  2  1  1  1 NREC =         1 INTLOC =    2
 II,JST,KST,LST =  3  1  1  1 NREC =         1 INTLOC =   34
 II,JST,KST,LST =  4  1  1  1 NREC =         1 INTLOC =  214
 II,JST,KST,LST =  5  1  1  1 NREC =         1 INTLOC = 1189
 II,JST,KST,LST =  6  1  1  1 NREC =         1 INTLOC = 2365
 II,JST,KST,LST =  7  1  1  1 NREC =         1 INTLOC = 3802
 II,JST,KST,LST =  8  1  1  1 NREC =         1 INTLOC = 5512
 TOTAL NUMBER OF NONZERO TWO-ELECTRON INTEGRALS =                7563
          1 INTEGRAL RECORDS WERE STORED ON DISK FILE  8.
  ...... END OF TWO-ELECTRON INTEGRALS .....
 STEP CPU TIME =     0.01 TOTAL CPU TIME =        0.0 (    0.0 MIN)
 TOTAL WALL CLOCK TIME=        0.1 SECONDS, CPU UTILIZATION IS  33.33%

          --------------------------
                 RHF SCF CALCULATION
          --------------------------

     NUCLEAR ENERGY =         9.1801505578
     MAXIT =    1     NPUNCH=    2
     EXTRAP=T  DAMP=F  SHIFT=F  RSTRCT=F  DIIS=T  DEM=F  SOSCF=F
     DENSITY MATRIX CONV=  1.00E-06
     MEMORY REQUIRED FOR RHF ITERS=     32936 WORDS.

 ITER EX DEM     TOTAL ENERGY        E CHANGE  DENSITY CHANGE    DIIS ERROR
   1  0  0      -75.9979107521   -75.9979107521   0.073992167   0.000000000

 SCF IS UNCONVERGED, TOO MANY ITERATIONS
     TIME TO FORM FOCK OPERATORS=       0.0 SECONDS (       0.0 SEC/ITER)
     TIME TO SOLVE SCF EQUATIONS=       0.0 SECONDS (       0.0 SEC/ITER)

 FINAL RHF ENERGY IS        0.0000000000 AFTER   1 ITERATIONS

          ------------
          EIGENVECTORS
          ------------

                      1          2          3          4          5
                  -20.5543    -1.3265    -0.6982    -0.5801    -0.5025
                     A          A          A          A          A   
    1  O  1  S    0.994580  -0.207923   0.000000  -0.071611   0.000000
    2  O  1  S    0.021353   0.465312   0.000000   0.163237   0.000000
    3  O  1  X    0.000000   0.000000   0.000000   0.000000   0.646880
    4  O  1  Y    0.000000   0.000000   0.499740   0.000000   0.000000
    5  O  1  Z   -0.001490  -0.086560   0.000000   0.565979   0.000000
    6  O  1  S    0.004138   0.436177   0.000000   0.302942   0.000000
    7  O  1  X    0.000000   0.000000   0.000000   0.000000   0.503548
    8  O  1  Y    0.000000   0.000000   0.309157   0.000000   0.000000
    9  O  1  Z    0.000562  -0.048936   0.000000   0.404187   0.000000
   10  O  1 XX   -0.003950  -0.000830   0.000000   0.012842   0.000000
   11  O  1 YY   -0.004305   0.026484   0.000000   0.003648   0.000000
   12  O  1 ZZ   -0.004108   0.022214   0.000000  -0.046532   0.000000
   13  O  1 XY    0.000000   0.000000   0.000000   0.000000   0.000000
   14  O  1 XZ    0.000000   0.000000   0.000000   0.000000  -0.035488
   15  O  1 YZ    0.000000   0.000000  -0.051329   0.000000   0.000000
   16  H  2  S    0.000336   0.134774   0.231927  -0.136582   0.000000
   17  H  2  S   -0.000181   0.009032   0.117402  -0.072052   0.000000
   18  H  3  S    0.000336   0.134774  -0.231927  -0.136582   0.000000
   19  H  3  S   -0.000181   0.009032  -0.117402  -0.072052   0.000000

                      6          7          8          9         10
                    0.2143     0.3097     1.0207     1.1323     1.1624
                     A          A          A          A          A   
    1  O  1  S   -0.104132   0.000000   0.000000  -0.005472   0.000000
    2  O  1  S    0.060357   0.000000   0.000000  -0.932272   0.000000
    3  O  1  X    0.000000   0.000000   0.000000   0.000000  -0.957850
    4  O  1  Y    0.000000   0.330245  -0.086659   0.000000   0.000000
    5  O  1  Z   -0.210663   0.000000   0.000000  -0.541373   0.000000
    6  O  1  S    1.428067   0.000000   0.000000   1.706783   0.000000
    7  O  1  X    0.000000   0.000000   0.000000   0.000000   1.039958
    8  O  1  Y    0.000000   0.836186  -0.662679   0.000000   0.000000
    9  O  1  Z   -0.505988   0.000000   0.000000   0.760006   0.000000
   10  O  1 XX   -0.071572   0.000000   0.000000  -0.376863   0.000000
   11  O  1 YY   -0.057423   0.000000   0.000000  -0.229533   0.000000
   12  O  1 ZZ   -0.043250   0.000000   0.000000  -0.328733   0.000000
   13  O  1 XY    0.000000   0.000000   0.000000   0.000000   0.000000
   14  O  1 XZ    0.000000   0.000000   0.000000   0.000000  -0.012782
   15  O  1 YZ    0.000000  -0.022382  -0.197548   0.000000   0.000000
   16  H  2  S   -0.054928  -0.047378   0.835936   0.420589   0.000000
   17  H  2  S   -1.041930  -1.396316  -0.462248  -0.401620   0.000000
   18  H  3  S   -0.054928   0.047378  -0.835936   0.420589   0.000000
   19  H  3  S   -1.041930   1.396316   0.462248  -0.401620   0.000000

                     11         12         13         14         15
                    1.1732     1.3854     1.4432     2.0188     2.0352
                     A          A          A          A          A   
    1  O  1  S    0.050231   0.000000  -0.085496   0.006813   0.000000
    2  O  1  S   -0.085507   0.000000  -1.413053   0.074557   0.000000
    3  O  1  X    0.000000   0.000000   0.000000   0.000000   0.000000
    4  O  1  Y    0.000000  -1.040965   0.000000   0.000000   0.000000
    5  O  1  Z    0.676898   0.000000   0.502923  -0.001306   0.000000
    6  O  1  S   -0.129740   0.000000   3.558925  -0.217178   0.000000
    7  O  1  X    0.000000   0.000000   0.000000   0.000000   0.000000
    8  O  1  Y    0.000000   1.521774   0.000000   0.000000   0.000000
    9  O  1  Z   -0.253164   0.000000  -1.184302   0.125826   0.000000
   10  O  1 XX   -0.132472   0.000000  -0.267559  -0.349966   0.000000
   11  O  1 YY    0.205975   0.000000  -0.647031  -0.597398   0.000000
   12  O  1 ZZ    0.025517   0.000000  -0.408941   1.004938   0.000000
   13  O  1 XY    0.000000   0.000000   0.000000   0.000000   1.000000
   14  O  1 XZ    0.000000   0.000000   0.000000   0.000000   0.000000
   15  O  1 YZ    0.000000  -0.020196   0.000000   0.000000   0.000000
   16  H  2  S    0.744768   0.104604  -0.336321   0.075086   0.000000
   17  H  2  S   -0.443964  -0.911504  -0.773884   0.034560   0.000000
   18  H  3  S    0.744768  -0.104604  -0.336321   0.075086   0.000000
   19  H  3  S   -0.443964   0.911504  -0.773884   0.034560   0.000000

                     16         17         18         19
                    2.0675     2.6213     2.9454     3.9724
                     A          A          A          A   
    1  O  1  S    0.000000  -0.057968   0.000000  -0.465833
    2  O  1  S    0.000000  -0.493068   0.000000   0.331626
    3  O  1  X    0.010721   0.000000   0.000000   0.000000
    4  O  1  Y    0.000000   0.000000   0.017902   0.000000
    5  O  1  Z    0.000000   0.050051   0.000000   0.116244
    6  O  1  S    0.000000   1.578623   0.000000   3.611724
    7  O  1  X    0.031185   0.000000   0.000000   0.000000
    8  O  1  Y    0.000000   0.000000  -0.849586   0.000000
    9  O  1  Z    0.000000  -0.751678   0.000000  -0.320490
   10  O  1 XX    0.000000  -1.140969   0.000000  -1.559824
   11  O  1 YY    0.000000   0.732927   0.000000  -1.523594
   12  O  1 ZZ    0.000000   0.059744   0.000000  -1.540967
   13  O  1 XY    0.000000   0.000000   0.000000   0.000000
   14  O  1 XZ    0.999288   0.000000   0.000000   0.000000
   15  O  1 YZ    0.000000   0.000000   1.282919   0.000000
   16  H  2  S    0.000000  -0.842797   0.947467   0.126197
   17  H  2  S    0.000000  -0.143966  -0.044123  -0.541717
   18  H  3  S    0.000000  -0.842797  -0.947467   0.126197
   19  H  3  S    0.000000  -0.143966   0.044123  -0.541717
 ...... END OF RHF CALCULATION ......
 STEP CPU TIME =     0.00 TOTAL CPU TIME =        0.0 (    0.0 MIN)
 TOTAL WALL CLOCK TIME=        0.1 SECONDS, CPU UTILIZATION IS  33.33%

     ----------------------------------------------------------------
     PROPERTY VALUES FOR THE RHF   SELF-CONSISTENT FIELD WAVEFUNCTION
     ----------------------------------------------------------------

          -----------------
          ENERGY COMPONENTS
          -----------------

         WAVEFUNCTION NORMALIZATION =       1.0000000000

                ONE ELECTRON ENERGY =    -123.0267534288
                TWO ELECTRON ENERGY =     113.8466028710
           NUCLEAR REPULSION ENERGY =       9.1801505578
                                      ------------------
                       TOTAL ENERGY =       0.0000000000

 ELECTRON-ELECTRON POTENTIAL ENERGY =     113.8466028710
  NUCLEUS-ELECTRON POTENTIAL ENERGY =    -198.7999892443
   NUCLEUS-NUCLEUS POTENTIAL ENERGY =       9.1801505578
                                      ------------------
             TOTAL POTENTIAL ENERGY =     -75.7732358155
               TOTAL KINETIC ENERGY =      75.7732358155
                 VIRIAL RATIO (V/T) =       1.0000000000

  ...... PI ENERGY ANALYSIS ......

 ENERGY ANALYSIS:
            FOCK ENERGY=    -47.3231604142
          BARE H ENERGY=   -123.0267534288
     ELECTRONIC ENERGY =    -85.1749569215
         KINETIC ENERGY=     75.7732358155
          N-N REPULSION=      9.1801505578
           TOTAL ENERGY=    -75.9948063637
        SIGMA PART(1+2)=    -77.5444314388
               (K,V1,2)=     71.1524128012   -179.9230856705     31.2262414305
           PI PART(1+2)=     -7.6305254827
               (K,V1,2)=      4.6208230143    -18.8769035738      6.6255550768
  SIGMA SKELETON, ERROR=    -68.3642808810     -0.0000000000
             MIXED PART= 0.00000E+00 0.00000E+00 0.00000E+00 0.00000E+00
 ...... END OF PI ENERGY ANALYSIS ......

          ---------------------------------------
          MULLIKEN AND LOWDIN POPULATION ANALYSES
          ---------------------------------------

     ATOMIC MULLIKEN POPULATION IN EACH MOLECULAR ORBITAL

                      1          2          3          4          5

                  2.000000   2.000000   2.000000   2.000000   2.000000

    1             2.000002   1.710175   1.340902   1.793488   2.000000
    2            -0.000001   0.144912   0.329549   0.103256   0.000000
    3            -0.000001   0.144912   0.329549   0.103256   0.000000

               ----- POPULATIONS IN EACH AO -----
                             MULLIKEN      LOWDIN
              1  O  1  S      1.99514     1.97731
              2  O  1  S      0.87943     0.69394
              3  O  1  X      1.16363     1.14140
              4  O  1  Y      0.78615     0.72896
              5  O  1  Z      0.96776     0.92271
              6  O  1  S      0.91072     0.48232
              7  O  1  X      0.83385     0.85608
              8  O  1  Y      0.53246     0.59462
              9  O  1  Z      0.68976     0.73365
             10  O  1 XX      0.00363     0.16632
             11  O  1 YY      0.03777     0.20416
             12  O  1 ZZ      0.01947     0.18015
             13  O  1 XY      0.00000     0.00000
             14  O  1 XZ      0.00252     0.00252
             15  O  1 YZ      0.02230     0.02827
             16  H  2  S      0.46590     0.43210
             17  H  2  S      0.11182     0.21169
             18  H  3  S      0.46590     0.43210
             19  H  3  S      0.11182     0.21169

          ----- MULLIKEN ATOMIC OVERLAP POPULATIONS -----
          (OFF-DIAGONAL ELEMENTS NEED TO BE MULTIPLIED BY 2)

             1           2           3

    1    8.2787088
    2    0.2829296   0.3201462
    3    0.2829296  -0.0253598   0.3201462

          TOTAL MULLIKEN AND LOWDIN ATOMIC POPULATIONS
       ATOM         MULL.POP.    CHARGE          LOW.POP.     CHARGE
    1 O1            8.844568   -0.844568         8.712415   -0.712415
    2 H2            0.577716    0.422284         0.643792    0.356208
    3 H3            0.577716    0.422284         0.643792    0.356208

          -------------------------------
          BOND ORDER AND VALENCE ANALYSIS     BOND ORDER THRESHOLD=0.050
          -------------------------------

                   BOND                       BOND                       BOND
  ATOM PAIR DIST  ORDER      ATOM PAIR DIST  ORDER      ATOM PAIR DIST  ORDER
    1   2  0.959  0.799        1   3  0.959  0.799

                       TOTAL       BONDED        FREE
      ATOM            VALENCE     VALENCE     VALENCE
    1 O1                1.599       1.599       0.000
    2 H2                0.794       0.794      -0.000
    3 H3                0.794       0.794       0.000

          ---------------------
          ELECTROSTATIC MOMENTS
          ---------------------

 POINT   1           X           Y           Z (BOHR)    CHARGE
                 0.000000    0.000000    0.098771        0.00 (A.U.)
         DX          DY          DZ         /D/  (DEBYE)
     0.000000   -0.000000   -2.260039    2.260039
 ...... END OF PROPERTY EVALUATION ......
 STEP CPU TIME =     0.00 TOTAL CPU TIME =        0.0 (    0.0 MIN)
 TOTAL WALL CLOCK TIME=        0.1 SECONDS, CPU UTILIZATION IS  28.57%

 SCF DID NOT CONVERGE...NO MPLEVL=2 CALCULATION
 EXECUTION OF GAMESS TERMINATED -ABNORMALLY- AT Wed Feb 24 12:55:53 2021
                580000  WORDS OF DYNAMIC MEMORY USED
 STEP CPU TIME =     0.00 TOTAL CPU TIME =        0.0 (    0.0 MIN)
 TOTAL WALL CLOCK TIME=        0.1 SECONDS, CPU UTILIZATION IS  28.57%
 ddikick.x: application process 0 quit unexpectedly.
 ddikick.x: Sending kill signal to DDI processes.
 ddikick.x: Execution terminated due to error(s).
----- accounting info -----
Files used on the master node bell-a370.rcac.purdue.edu were:
-rw-r--r-- 1 rong10 student    6827 Feb 24 12:55 /scratch/bell/rong10/water_631g_mp2.0.dat
-rw-r--r-- 1 rong10 student    6474 Feb 24 12:55 /scratch/bell/rong10/water_631g_mp2.0.F05
-rw-r--r-- 1 rong10 student  180016 Feb 24 12:55 /scratch/bell/rong10/water_631g_mp2.0.F08
-rw-r--r-- 1 rong10 student 1570560 Feb 24 12:55 /scratch/bell/rong10/water_631g_mp2.0.F10
Wed Feb 24 12:55:55 EST 2021
0.190u 0.057s 0:02.43 9.8%	0+0k 16+192io 0pf+0w
